# Probe 0 (0.5 0.25 0)
# Probe 1 (0.5 0.25 10)
# Time        0             1            
0             0             -1.79769e+307
1             5541.67       -1.79769e+307
2             6007.85       -1.79769e+307
3             6100.85       -1.79769e+307
4             6128.17       -1.79769e+307
5             6119.06       -1.79769e+307
